216
Lattice="12.0 0.0 0.0 0.0 12.0 0.0 0.0 0.0 12.0" Properties=species:S:1:pos:R:3:y_force:R:3 y_energy=1.0 pbc="T T T"
Na       0.00000000       0.00000000       0.00000000       0.89928073       0.84342985       0.84846997
Cl       2.00000000       0.00000000       0.00000000       0.84642651       0.73106963       0.41274866
Na       0.00000000       2.00000000       2.00000000       0.95412570       0.69710322       0.45731317
Cl       2.00000000       2.00000000       2.00000000       0.05104174       0.40533502       0.03151242
Na       2.00000000       0.00000000       2.00000000       0.31190615       0.75800493       0.58068626
Cl       0.00000000       0.00000000       2.00000000       0.97296257       0.25207423       0.62540820
Na       2.00000000       2.00000000       0.00000000       0.89064996       0.08777538       0.05562792
Cl       0.00000000       2.00000000       0.00000000       0.64979175       0.46389104       0.40189759
Na       0.00000000       0.00000000       4.00000000       0.15485573       0.52770709       0.31146836
Cl       2.00000000       0.00000000       4.00000000       0.57812742       0.30789448       0.18870733
Na       0.00000000       2.00000000       6.00000000       0.31640077       0.94673686       0.62577496
Cl       2.00000000       2.00000000       6.00000000       0.51604129       0.50553644       0.40018027
Na       2.00000000       0.00000000       6.00000000       0.58229838       0.54831064       0.63443356
Cl       0.00000000       0.00000000       6.00000000       0.96535144       0.35999229       0.21742982
Na       2.00000000       2.00000000       4.00000000       0.29253410       0.06740032       0.12210474
Cl       0.00000000       2.00000000       4.00000000       0.83959735       0.39317313       0.40770077
Na       0.00000000       0.00000000       8.00000000       0.62712490       0.61090737       0.28699911
Cl       2.00000000       0.00000000       8.00000000       0.09062073       0.62702707       0.43298791
Na       0.00000000       2.00000000      10.00000000       0.46115538       0.13087089       0.18832785
Cl       2.00000000       2.00000000      10.00000000       0.42364932       0.60261222       0.59542548
Na       2.00000000       0.00000000      10.00000000       0.36563915       0.67150048       0.55312123
Cl       0.00000000       0.00000000      10.00000000       0.71893210       0.40676085       0.75850498
Na       2.00000000       2.00000000       8.00000000       0.88562007       0.86652898       0.50533661
Cl       0.00000000       2.00000000       8.00000000       0.28097782       0.16157274       0.30295694
Na       0.00000000       4.00000000       0.00000000       0.44975643       0.07838263       0.58216192
Cl       2.00000000       4.00000000       0.00000000       0.16857671       0.56995346       0.52744017
Na       0.00000000       6.00000000       2.00000000       0.54243368       0.51510176       0.43259564
Cl       2.00000000       6.00000000       2.00000000       0.48636633       0.92640831       0.03354983
Na       2.00000000       4.00000000       2.00000000       0.65559921       0.30016965       0.62533123
Cl       0.00000000       4.00000000       2.00000000       0.67276963       0.51786689       0.86106124
Na       2.00000000       6.00000000       0.00000000       0.97101558       0.94603493       0.65980318
Cl       0.00000000       6.00000000       0.00000000       0.14416994       0.68404897       0.27081459
Na       0.00000000       4.00000000       4.00000000       0.03968268       0.44327764       0.48763727
Cl       2.00000000       4.00000000       4.00000000       0.63636715       0.09307538       0.42538002
Na       0.00000000       6.00000000       6.00000000       0.91905627       0.96178457       0.62428885
Cl       2.00000000       6.00000000       6.00000000       0.46412252       0.01855060       0.06051758
Na       2.00000000       4.00000000       6.00000000       0.88031575       0.82678216       0.68942490
Cl       0.00000000       4.00000000       6.00000000       0.26867691       0.65843966       0.13650605
Na       2.00000000       6.00000000       4.00000000       0.97182631       0.26065125       0.54781686
Cl       0.00000000       6.00000000       4.00000000       0.56092999       0.51999412       0.54619185
Na       0.00000000       4.00000000       8.00000000       0.11959160       0.10013018       0.88566044
Cl       2.00000000       4.00000000       8.00000000       0.31182452       0.22050083       0.26204277
Na       0.00000000       6.00000000      10.00000000       0.87782970       0.01994349       0.25072203
Cl       2.00000000       6.00000000      10.00000000       0.91540238       0.78268589       0.13161888
Na       2.00000000       4.00000000      10.00000000       0.75004992       0.88931495       0.93978587
Cl       0.00000000       4.00000000      10.00000000       0.74087371       0.23751259       0.98520992
Na       2.00000000       6.00000000       8.00000000       0.10382099       0.33492900       0.68870567
Cl       0.00000000       6.00000000       8.00000000       0.58233411       0.05721919       0.27152667
Na       0.00000000       8.00000000       0.00000000       0.88903758       0.20063648       0.07333250
Cl       2.00000000       8.00000000       0.00000000       0.29703426       0.46168445       0.76282590
Na       0.00000000      10.00000000       2.00000000       0.59405001       0.09317117       0.50104521
Cl       2.00000000      10.00000000       2.00000000       0.74529410       0.48799947       0.70232591
Na       2.00000000       8.00000000       2.00000000       0.12425687       0.22287640       0.65258809
Cl       0.00000000       8.00000000       2.00000000       0.86230253       0.63517884       0.50250414
Na       2.00000000      10.00000000       0.00000000       0.70495330       0.24623597       0.82822253
Cl       0.00000000      10.00000000       0.00000000       0.95494569       0.16383020       0.09708951
Na       0.00000000       8.00000000       4.00000000       0.07643811       0.65986545       0.53483707
Cl       2.00000000       8.00000000       4.00000000       0.67093884       0.06048350       0.08997136
Na       0.00000000      10.00000000       6.00000000       0.22780261       0.34167782       0.48782651
Cl       2.00000000      10.00000000       6.00000000       0.90042003       0.46668606       0.04526806
Na       2.00000000       8.00000000       6.00000000       0.79383482       0.82831037       0.42753586
Cl       0.00000000       8.00000000       6.00000000       0.87526011       0.20532199       0.19147815
Na       2.00000000      10.00000000       4.00000000       0.55377594       0.51726856       0.26015904
Cl       0.00000000      10.00000000       4.00000000       0.58152434       0.56167063       0.45434524
Na       0.00000000       8.00000000       8.00000000       0.57215798       0.10670022       0.79670964
Cl       2.00000000       8.00000000       8.00000000       0.90779944       0.76415762       0.25878944
Na       0.00000000      10.00000000      10.00000000       0.67156583       0.69720710       0.44047881
Cl       2.00000000      10.00000000      10.00000000       0.05544429       0.80660072       0.00213437
Na       2.00000000       8.00000000      10.00000000       0.92004559       0.11135976       0.65092278
Cl       0.00000000       8.00000000      10.00000000       0.56208906       0.55075012       0.29237880
Na       2.00000000      10.00000000       8.00000000       0.64720233       0.86226478       0.68223276
Cl       0.00000000      10.00000000       8.00000000       0.21220387       0.84040360       0.16487699
Na       4.00000000       0.00000000       0.00000000       0.60010885       0.67727495       0.47615703
Cl       6.00000000       0.00000000       0.00000000       0.46641719       0.58936212       0.07506734
Na       4.00000000       2.00000000       2.00000000       0.27333408       0.60976064       0.31735541
Cl       6.00000000       2.00000000       2.00000000       0.08399937       0.40219910       0.46165917
Na       6.00000000       0.00000000       2.00000000       0.85534420       0.68476373       0.86698932
Cl       4.00000000       0.00000000       2.00000000       0.02934965       0.38821909       0.94301108
Na       6.00000000       2.00000000       0.00000000       0.89533283       0.65011725       0.60064460
Cl       4.00000000       2.00000000       0.00000000       0.18461049       0.24105789       0.83563443
Na       4.00000000       0.00000000       4.00000000       0.73890848       0.21102069       0.28632322
Cl       6.00000000       0.00000000       4.00000000       0.28457683       0.64909959       0.72661624
Na       4.00000000       2.00000000       6.00000000       0.51449117       0.23674420       0.89170750
Cl       6.00000000       2.00000000       6.00000000       0.61636866       0.46436265       0.21978771
Na       6.00000000       0.00000000       6.00000000       0.25161756       0.90443591       0.07353463
Cl       4.00000000       0.00000000       6.00000000       0.57151419       0.43009796       0.02095434
Na       6.00000000       2.00000000       4.00000000       0.31850328       0.70673251       0.03578534
Cl       4.00000000       2.00000000       4.00000000       0.97389225       0.45246705       0.52687015
Na       4.00000000       0.00000000       8.00000000       0.17770749       0.31051001       0.91687632
Cl       6.00000000       0.00000000       8.00000000       0.26709980       0.15320606       0.58972453
Na       4.00000000       2.00000000      10.00000000       0.89660914       0.56431479       0.87741701
Cl       6.00000000       2.00000000      10.00000000       0.10641500       0.38809284       0.68442068
Na       6.00000000       0.00000000      10.00000000       0.93244647       0.21397088       0.86791693
Cl       4.00000000       0.00000000      10.00000000       0.11680083       0.40446450       0.81531722
Na       6.00000000       2.00000000       8.00000000       0.52751056       0.43189640       0.86226832
Cl       4.00000000       2.00000000       8.00000000       0.42645095       0.90070454       0.15819490
Na       4.00000000       4.00000000       0.00000000       0.00160343       0.52913715       0.42020187
Cl       6.00000000       4.00000000       0.00000000       0.11704147       0.30215734       0.67912939
Na       4.00000000       6.00000000       2.00000000       0.17884672       0.45525863       0.03520007
Cl       6.00000000       6.00000000       2.00000000       0.74020932       0.77373430       0.80070361
Na       6.00000000       4.00000000       2.00000000       0.93424886       0.99530394       0.05837250
Cl       4.00000000       4.00000000       2.00000000       0.42793113       0.69624883       0.06237218
Na       6.00000000       6.00000000       0.00000000       0.96180307       0.71605401       0.70195464
Cl       4.00000000       6.00000000       0.00000000       0.20997380       0.49439226       0.47190720
Na       4.00000000       4.00000000       4.00000000       0.62892596       0.61935926       0.75088995
Cl       6.00000000       4.00000000       4.00000000       0.18785694       0.01814437       0.21332518
Na       4.00000000       6.00000000       6.00000000       0.51373670       0.88970124       0.64475592
Cl       6.00000000       6.00000000       6.00000000       0.78869668       0.75502497       0.27349553
Na       6.00000000       4.00000000       6.00000000       0.20142069       0.69198475       0.63767332
Cl       4.00000000       4.00000000       6.00000000       0.28595392       0.48458282       0.58985010
Na       6.00000000       6.00000000       4.00000000       0.86918541       0.24028113       0.53253178
Cl       4.00000000       6.00000000       4.00000000       0.86769233       0.04503393       0.14964442
Na       4.00000000       4.00000000       8.00000000       0.16822064       0.05150107       0.72166473
Cl       6.00000000       4.00000000       8.00000000       0.66340784       0.33901583       0.51084575
Na       4.00000000       6.00000000      10.00000000       0.77720033       0.29390994       0.94482932
Cl       6.00000000       6.00000000      10.00000000       0.67421090       0.78273657       0.55108383
Na       6.00000000       4.00000000      10.00000000       0.78344561       0.35296152       0.99132534
Cl       4.00000000       4.00000000      10.00000000       0.07127416       0.61462301       0.75909614
Na       6.00000000       6.00000000       8.00000000       0.00963209       0.44122823       0.84386879
Cl       4.00000000       6.00000000       8.00000000       0.34454450       0.38136923       0.03427008
Na       4.00000000       8.00000000       0.00000000       0.85264271       0.90265376       0.87522531
Cl       6.00000000       8.00000000       0.00000000       0.81924279       0.59082954       0.10827209
Na       4.00000000      10.00000000       2.00000000       0.99340752       0.53022161       0.31507413
Cl       6.00000000      10.00000000       2.00000000       0.02590915       0.68772441       0.25123619
Na       6.00000000       8.00000000       2.00000000       0.10960006       0.29805953       0.30690043
Cl       4.00000000       8.00000000       2.00000000       0.60890841       0.70388076       0.54685933
Na       6.00000000      10.00000000       0.00000000       0.62421117       0.29717300       0.67794651
Cl       4.00000000      10.00000000       0.00000000       0.70081830       0.34667112       0.07194706
Na       4.00000000       8.00000000       4.00000000       0.28648925       0.42278618       0.86790328
Cl       6.00000000       8.00000000       4.00000000       0.20461837       0.39151417       0.84297075
Na       4.00000000      10.00000000       6.00000000       0.94155975       0.17200389       0.54800282
Cl       6.00000000      10.00000000       6.00000000       0.92744030       0.38841077       0.80143031
Na       6.00000000       8.00000000       6.00000000       0.67925918       0.50490009       0.83015775
Cl       4.00000000       8.00000000       6.00000000       0.39402054       0.54067414       0.91780176
Na       6.00000000      10.00000000       4.00000000       0.01052512       0.53562614       0.91869447
Cl       4.00000000      10.00000000       4.00000000       0.03626760       0.90282298       0.04643108
Na       4.00000000       8.00000000       8.00000000       0.84509611       0.79707587       0.06341650
Cl       6.00000000       8.00000000       8.00000000       0.81364523       0.21425467       0.27327137
Na       4.00000000      10.00000000      10.00000000       0.74648816       0.66274487       0.29439241
Cl       6.00000000      10.00000000      10.00000000       0.76029995       0.11818982       0.24168625
Na       6.00000000       8.00000000      10.00000000       0.22941824       0.07235448       0.92492617
Cl       4.00000000       8.00000000      10.00000000       0.01373579       0.91208414       0.98866688
Na       6.00000000      10.00000000       8.00000000       0.73599509       0.13567860       0.83266186
Cl       4.00000000      10.00000000       8.00000000       0.87389408       0.32709371       0.75797255
Na       8.00000000       0.00000000       0.00000000       0.24987790       0.84438891       0.10275994
Cl      10.00000000       0.00000000       0.00000000       0.88942377       0.35624040       0.59247506
Na       8.00000000       2.00000000       2.00000000       0.48815023       0.87526420       0.90376734
Cl      10.00000000       2.00000000       2.00000000       0.65172879       0.74482366       0.11958795
Na      10.00000000       0.00000000       2.00000000       0.79694477       0.56694923       0.06316072
Cl       8.00000000       0.00000000       2.00000000       0.67191759       0.47889141       0.28465684
Na      10.00000000       2.00000000       0.00000000       0.60092677       0.56291925       0.52837809
Cl       8.00000000       2.00000000       0.00000000       0.71981447       0.91191837       0.35993459
Na       8.00000000       0.00000000       4.00000000       0.12791873       0.52518478       0.28585063
Cl      10.00000000       0.00000000       4.00000000       0.90380497       0.00114807       0.12412766
Na       8.00000000       2.00000000       6.00000000       0.05224159       0.07657938       0.49624121
Cl      10.00000000       2.00000000       6.00000000       0.06743665       0.88783346       0.86858748
Na      10.00000000       0.00000000       6.00000000       0.95598767       0.81821873       0.31166149
Cl       8.00000000       0.00000000       6.00000000       0.44559897       0.48842844       0.08690913
Na      10.00000000       2.00000000       4.00000000       0.22637526       0.88402319       0.94464376
Cl       8.00000000       2.00000000       4.00000000       0.72412504       0.84158344       0.94991974
Na       8.00000000       0.00000000       8.00000000       0.87427609       0.54480767       0.05159752
Cl      10.00000000       0.00000000       8.00000000       0.01555746       0.09164642       0.25912824
Na       8.00000000       2.00000000      10.00000000       0.55781598       0.61281765       0.38706008
Cl      10.00000000       2.00000000      10.00000000       0.94836188       0.07650995       0.68715314
Na      10.00000000       0.00000000      10.00000000       0.48648934       0.33413868       0.62181358
Cl       8.00000000       0.00000000      10.00000000       0.85013860       0.71609082       0.54261632
Na      10.00000000       2.00000000       8.00000000       0.40907171       0.85386238       0.98364613
Cl       8.00000000       2.00000000       8.00000000       0.44529707       0.10608568       0.86658448
Na       8.00000000       4.00000000       0.00000000       0.99925799       0.60209392       0.92429090
Cl      10.00000000       4.00000000       0.00000000       0.46618707       0.19422864       0.15489963
Na       8.00000000       6.00000000       2.00000000       0.03829457       0.11953218       0.74850704
Cl      10.00000000       6.00000000       2.00000000       0.73525139       0.04475467       0.45924980
Na      10.00000000       4.00000000       2.00000000       0.02292930       0.84077446       0.71599526
Cl       8.00000000       4.00000000       2.00000000       0.95752906       0.46411288       0.23313896
Na      10.00000000       6.00000000       0.00000000       0.46515039       0.63450300       0.32167875
Cl       8.00000000       6.00000000       0.00000000       0.28850995       0.79888110       0.36754851
Na       8.00000000       4.00000000       4.00000000       0.05689745       0.99908756       0.40413169
Cl      10.00000000       4.00000000       4.00000000       0.81583318       0.18504323       0.98452671
Na       8.00000000       6.00000000       6.00000000       0.76623743       0.31593405       0.51838416
Cl      10.00000000       6.00000000       6.00000000       0.54655381       0.67342117       0.69771965
Na      10.00000000       4.00000000       6.00000000       0.11534416       0.51776373       0.67275273
Cl       8.00000000       4.00000000       6.00000000       0.76676860       0.35372343       0.95462689
Na      10.00000000       6.00000000       4.00000000       0.43916011       0.15431750       0.64919293
Cl       8.00000000       6.00000000       4.00000000       0.14389657       0.28104559       0.62533132
Na       8.00000000       4.00000000       8.00000000       0.71739378       0.77296811       0.04596974
Cl      10.00000000       4.00000000       8.00000000       0.99926405       0.79488377       0.18867622
Na       8.00000000       6.00000000      10.00000000       0.54392988       0.36278621       0.76475456
Cl      10.00000000       6.00000000      10.00000000       0.11176365       0.91263956       0.72543067
Na      10.00000000       4.00000000      10.00000000       0.17725951       0.30857725       0.67878139
Cl       8.00000000       4.00000000      10.00000000       0.39597192       0.57004929       0.07162569
Na      10.00000000       6.00000000       8.00000000       0.37270412       0.32151616       0.13610644
Cl       8.00000000       6.00000000       8.00000000       0.26009200       0.01504482       0.25941849
Na       8.00000000       8.00000000       0.00000000       0.60408987       0.76672572       0.15331443
Cl      10.00000000       8.00000000       0.00000000       0.77422828       0.84144851       0.38117375
Na       8.00000000      10.00000000       2.00000000       0.36830083       0.18114844       0.97298998
Cl      10.00000000      10.00000000       2.00000000       0.76714542       0.10071155       0.76253913
Na      10.00000000       8.00000000       2.00000000       0.72951138       0.53797055       0.81674112
Cl       8.00000000       8.00000000       2.00000000       0.81109149       0.53426248       0.90154734
Na      10.00000000      10.00000000       0.00000000       0.62394566       0.49776274       0.99339047
Cl       8.00000000      10.00000000       0.00000000       0.96705284       0.74385019       0.30452605
Na       8.00000000       8.00000000       4.00000000       0.86916910       0.02006545       0.31068767
Cl      10.00000000       8.00000000       4.00000000       0.06540284       0.46195890       0.11032610
Na       8.00000000      10.00000000       6.00000000       0.82537807       0.08258821       0.45870012
Cl      10.00000000      10.00000000       6.00000000       0.85697176       0.83485781       0.63314253
Na      10.00000000       8.00000000       6.00000000       0.88919199       0.88993366       0.91537960
Cl       8.00000000       8.00000000       6.00000000       0.26544765       0.09242129       0.38957139
Na      10.00000000      10.00000000       4.00000000       0.95311178       0.95800766       0.24762144
Cl       8.00000000      10.00000000       4.00000000       0.20420812       0.82315527       0.35391691
Na       8.00000000       8.00000000       8.00000000       0.50834610       0.99733992       0.35126213
Cl      10.00000000       8.00000000       8.00000000       0.15104975       0.48213740       0.88971451
Na       8.00000000      10.00000000      10.00000000       0.79884444       0.77994983       0.35990701
Cl      10.00000000      10.00000000      10.00000000       0.18201873       0.26511707       0.89165710
Na      10.00000000       8.00000000      10.00000000       0.00726225       0.41114342       0.01108545
Cl       8.00000000       8.00000000      10.00000000       0.39256066       0.34008757       0.45826501
Na      10.00000000      10.00000000       8.00000000       0.19606823       0.12994299       0.29687688
Cl       8.00000000      10.00000000       8.00000000       0.30402053       0.02536893       0.43173998
