216
Lattice="12.0 0.0 0.0 0.0 12.0 0.0 0.0 0.0 12.0" Properties=species:S:1:pos:R:3:y_force:R:3 y_energy=1.0 pbc="T T T"
Na       4.96714153      -1.38264301       6.47688538       0.26897837       0.18770075       0.53192509
Cl      17.23029856      -2.34153375      -2.34136957       0.41391027       0.59087358       0.96749776
Na      15.79212816       9.67434729      -2.69474386       0.13371579       0.15126167       0.23257073
Cl       7.42560044      -2.63417693      -2.65729754       0.43757052       0.65821110       0.56720695
Na       4.41962272     -19.13280245     -15.24917833       0.55682621       0.17743783       0.06767589
Cl      -5.62287529     -10.12831120       5.14247333       0.21127098       0.18409340       0.87204603
Na      -7.08024076     -12.12303701      14.65648769       0.04699747       0.47647388       0.78742823
Cl      -2.25776300       2.67528205     -14.24748186       0.14407939       0.19090286       0.40412450
Na      -5.44382725       1.10922590      -7.50993577       0.59635568       0.80197749       0.70347992
Cl       5.75698018      -6.00638690       1.08306250       0.83199353       0.36574737       0.40996919
Na      -6.01706612      20.52278185       5.86502775       0.75733696       0.47357137       0.98478094
Cl      -8.57710929      10.22544912      -6.20843650       0.29417094       0.79367402       0.72480468
Na       4.08863595     -19.59670124      -7.28186049       0.95039997       0.91687577       0.85702281
Cl       1.96861236       7.38466580       7.71368281       0.24413658       0.92872132       0.68501874
Na       0.84351718      -1.01103696     -10.78521990       0.46035920       0.20346534       0.99149824
Cl      -7.19844208      -2.60638771      14.57122226       0.80535399       0.98133758       0.55304139
Na       3.43618290     -17.63040155      11.24083969       0.82424041       0.20056277       0.52959284
Cl      -1.85082280      -6.76922000      14.11676289       0.00391440       0.02700811       0.01675924
Na      10.30999522      11.31280119       1.60782477       0.40121153       0.60217957       0.08186102
Cl      -1.09212376       5.31263431      19.75545127       0.86337026       0.94617237       0.65826762
Na      -2.79174238      -1.85658977      -1.06334974       0.57555992       0.41494758       0.77126218
Cl     -11.96206624       8.12525822      23.56240029       0.49685665       0.43428393       0.83564281
Na       1.27989878      12.03532898      11.61636025       0.67486574       0.25361014       0.06268094
Cl      -6.45119755       5.61395606      23.38036566       0.07615676       0.21959262       0.06694962
Na      -0.35826039      19.64643656     -26.19745104       0.01731649       0.72531028       0.71232421
Cl      10.21902504       4.87047068      -2.99007350       0.46940715       0.81668964       0.55822666
Na       0.91760777     -13.87568915      -0.19671888       0.12558086       0.65875078       0.29226369
Cl       5.57112572      20.77894045      -3.18270218       0.58580446       0.65218921       0.76788725
Na      -6.08493603      -1.01757044      11.15402118       0.59321728       0.31849692       0.31282603
Cl       3.28751110      -1.29760204       7.13267433       0.64627165       0.08612326       0.41718084
Na       2.97077549      15.68644991      -7.02053094       0.33503858       0.50882971       0.79514736
Cl      -3.27662147       2.07891847     -14.63514948       0.89733030       0.30386125       0.08003423
Na       2.96120277       6.61055272       4.05113457       0.76672875       0.03909067       0.94673298
Cl      -0.34587133     -10.15370742      -0.20645323       0.99789522       0.08245291       0.43952186
Na      -3.42714517      -2.02277269       4.38714288       0.03796763       0.63666875       0.46784403
Cl       6.04050857      24.86185901       7.74577813       0.14001642       0.20407023       0.69885897
Na       4.57550391       3.25554084     -13.18771215       0.69806740       0.77462950       0.49554262
Cl      -0.26513875       4.60230210      30.63242112       0.37818842       0.42022269       0.06229790
Na       0.07639035       9.01547342       3.65288230       0.65211687       0.16949530       0.61091001
Cl     -11.68678038      17.42822815      11.51933033       0.78729135       0.75249894       0.68484462
Na       7.91031947      -5.09387455      22.02794311       0.30561351       0.70509726       0.60573399
Cl     -12.01851063       9.86857094      29.90455626       0.96697751       0.65811925       0.05222181
Na      -9.90536325       0.33702270      10.99651365       0.03823989       0.95777288       0.00705855
Cl      -3.03475654      -9.50663431      10.68562975       0.56674965       0.93371867       0.31132964
Na      -8.62303714       8.73592431       0.80575766       0.99365910       0.29064997       0.27280226
Cl      15.49934405      -3.83253292       6.77938484       0.78088410       0.75180992       0.54965564
Na      10.13517217      -6.30864316      10.27459935       0.13779345       0.82641528       0.71638559
Cl      13.07142754     -10.07483235       9.84633859       0.10450467       0.06597824       0.92990318
Na       2.59882794      15.81822872     -12.36950711       0.53701294       0.42501261       0.69053268
Cl     -11.20456613      13.21941566       2.96984673       0.35405109       0.57360722       0.22725408
Na       2.50492850      13.46448209      -4.80024722       0.99040802       0.39724914       0.91811594
Cl       4.32253697      12.93072473      -5.14351418       0.94372022       0.38512019       0.97973276
Na      20.65774511      12.73832921      -9.91303497       0.58585980       0.04171217       0.42178244
Cl       6.56553609      -1.74681670       9.87084604       0.93155280       0.67299010       0.70921573
Na      13.58595579       1.79317682       9.63376129       0.83641939       0.70939415       0.76053055
Cl       4.12780927      18.22060160      18.96792983       0.44128055       0.20717335       0.31130199
Na      -2.45388116       0.46263836      -4.89514430       0.97377169       0.35791154       0.00061638
Cl      -6.15810285       7.22898291       7.41151975       0.72008897       0.84972964       0.40012947
Na       2.76690799      18.27183249       6.13001892       0.71451557       0.06016759       0.68836835
Cl      16.53534077       7.35343167      33.20169167       0.50094842       0.38829296       0.02960734
Na       8.25667348      -0.57157556      -4.70892498       0.33571412       0.49052711       0.94293438
Cl       4.82472415       5.76537215      13.14000494       0.41235262       0.76844430       0.46095893
Na       6.73237625       9.27171087      -4.46793718       0.27143842       0.98225720       0.59382254
Cl     -15.14847225       5.53485048      12.56398794       0.23109165       0.70442464       0.43926408
Na       2.14093744      -4.45738779       9.73180926       0.17155173       0.00188330       0.40659651
Cl       5.85317380      -0.83857436       9.53725106       0.93107656       0.90416258       0.90661960
Na       0.58208718      -1.42970298      13.57787360       0.82236175       0.03649091       0.58982780
Cl       7.60784526      20.83051243      20.53802052       0.60548895       0.08789123       0.48494248
Na     -11.77669368      -1.37825040      15.15035267       0.11966377       0.98908746       0.27123544
Cl       5.13785951      13.15047686      48.52731491       0.56106669       0.60389756       0.32019122
Na       7.70890511      21.35565640      17.54001763       0.34105432       0.45268196       0.22682214
Cl       6.51391251       6.84730755      15.58969220       0.50928240       0.59806762       0.01835332
Na      -3.72825215      -2.36818607      -4.85363548       0.20848773       0.80372041       0.91771694
Cl       6.81874139      23.14658567     -18.67265193       0.53060273       0.98202543       0.52036598
Na      10.86260190     -14.12715871      -2.71931866       0.33488396       0.06008599       0.47213339
Cl      16.88950597       2.64280019      -8.77744778       0.65389737       0.34576342       0.74931252
Na      -1.15303709       6.79597749      -5.30366632       0.55520635       0.18227262       0.14259056
Cl       6.16458590       0.45571840      -4.51600348       0.50961283       0.68351378       0.87846771
Na      27.43944089       8.33919022     -20.25142587       0.55479348       0.11224660       0.71251265
Cl       5.86454315      -4.61786465       8.52433335       0.74957554       0.97761971       0.91052535
Na      -3.92520738      -1.14736441       9.04987279       0.80215621       0.62952728       0.46063650
Cl      14.65755194     -12.00296407       0.65498764       0.03538186       0.71640380       0.87966077
Na      -0.74945311      -4.53329233      23.65454240       0.89964242       0.74461071       0.75893258
Cl      10.04981711     -10.60883954      15.17861947       0.19918019       0.92029285       0.52105400
Na      27.22156197      10.32465261      -9.19369966       0.77874680       0.36607932       0.01008433
Cl      -0.84234073      12.66911149      -1.07669466       0.20240311       0.42757070       0.87866456
Na      10.43819428       9.74634053      -5.26930472       0.96992911       0.01485627       0.82411715
Cl       3.40474644     -30.41267340      -6.24387641       0.48165155       0.54378686       0.29835192
Na       1.47431849     -12.47783182      24.32411304       0.93553292       0.47339224       0.90443465
Cl      -8.30141378      -4.40044487       9.30740577       0.31111750       0.36173271       0.46319600
Na      18.41273289     -12.35862151      21.63163752       0.38907503       0.32789828       0.30549083
Cl       6.10233061      -7.81508651      14.62103474       0.03273569       0.38848068       0.25084307
Na       7.99059696      -6.00216877      10.69802085       0.37560363       0.49954217       0.83644959
Cl       0.14686403       1.13517345      16.62130675       0.10776230       0.30177938       0.11093176
Na      21.86016816     -10.37815499      29.33033375       0.08217349       0.32493024       0.04879983
Cl     -15.52087800       0.48214905      13.88317206       0.31803458       0.52175241       0.89789092
Na       6.80991868      -2.22699520      -2.08122250       0.86133269       0.00773970       0.37147666
Cl       1.06999065      -1.89364757       8.49602097       0.58176024       0.61889230       0.10115791
Na       7.57015486      -0.92909595      10.99599875       0.73251212       0.94654646       0.32488322
Cl       9.07299521      14.12862119       8.29628842       0.46008920       0.55881673       0.25050248
Na      -2.28995011      -1.60181040       9.47293605       0.01242120       0.98983776       0.01103401
Cl      10.10370265       3.79098406       3.17327383       0.39532726       0.04578298       0.69832960
Na      18.77664896       0.08428611       5.47097381       0.17218655       0.45890873       0.86318112
Cl       1.97807348       3.82318797      10.98776852       0.64157304       0.45486433       0.50657793
Na      12.25416349      12.13509636      17.05478807       0.87830886       0.43062450       0.11374933
Cl       6.21003842      10.81952971       0.89733243       0.59938620       0.49807857       0.55822551
Na       7.24166352       4.69856946       6.96995965       0.38328224       0.24665029       0.50148624
Cl      11.95157025      -2.18220683      26.92387276       0.75857730       0.89425309       0.15702772
Na      -4.06017381      -8.14188613      17.58110874       0.58979692       0.70292747       0.06749298
Cl      11.91662694      10.24119817      12.28345509       0.97682653       0.09262431       0.48532183
Na       5.87753227      -2.97254371       4.75804558       0.31213373       0.47581351       0.19196585
Cl      -2.77161712      15.75119733       2.52942618       0.34174515       0.41985404       0.10151338
Na      -4.25497197       0.78614158      12.12931454       0.45380654       0.21136059       0.55937265
Cl       0.36275447      -4.22220396      10.43687211       0.01571282       0.97121652       0.78765716
Na       6.44966571       0.93056825       5.28961694       0.06149609       0.50394262       0.95642390
Cl       8.32049937      -8.48084341      -4.07463774       0.67009791       0.44722613       0.76810035
Na      -1.18444221       1.86552848      13.10907566       0.56959665       0.96614623       0.65543423
Cl      18.75356217      12.57659623       8.40061470       0.53268768       0.95076326       0.77596582
Na       5.80983792      -4.02529365       7.81486864       0.92558876       0.93968449       0.95266427
Cl       1.11341361       9.22718560      -0.27230944       0.47585134       0.09753412       0.55035281
Na       9.19346514      23.32738913      -1.08760148       0.22595601       0.95591629       0.20474391
Cl      10.01711722      14.90143992      -4.01220472       0.54905575       0.99686754       0.75579848
Na       6.24092482      10.12592401       2.97676099       0.88659338       0.01749019       0.35249903
Cl      -1.73009784      10.24510174       6.97998291       0.93133304       0.36379600       0.56223165
Na      20.51143608      17.59270826      23.53182458       0.08006436       0.66081429       0.43518186
Cl      -3.67347563      16.72320637       3.83342006       0.21485974       0.38585986       0.72738544
Na      27.89802933       1.91701715      -8.39721842       0.77794797       0.83484718       0.76965464
Cl      -1.99392645     -11.23895724      -5.25755022       0.72589174       0.20404516       0.98857524
Na      -3.59132662       9.50393786       7.41755976       0.88936070       0.35624600       0.30062564
Cl      24.76170839      17.50423838      -1.76903656       0.39039945       0.31489445       0.83812051
Na      -4.98414671      14.91919172      -7.20233207       0.40840835       0.86712562       0.24765916
Cl      24.31458766      21.79440121       1.30824348       0.92785616       0.74882331       0.05360714
Na     -11.13134529      21.53872374       4.85460155       0.61356332       0.51366511       0.96065495
Cl      16.37816312      -7.94427659       0.00624977       0.20298648       0.41969239       0.68511254
Na       6.05243700      10.46980594      -0.50065471       0.78848492       0.35710337       0.43131862
Cl      10.22849932      -0.67620429       2.57620515       0.54830874       0.90789806       0.87138354
Na       5.20295632      13.14438834      15.11614878       0.05933990       0.45072385       0.49060680
Cl      -5.24642092      -7.34114171      20.77676822       0.90792465       0.33572114       0.90985220
Na       7.32314012       2.51513463      25.51151976       0.49640975       0.00118483       0.40195322
Cl       7.15674634      21.79297184      10.67518481       0.13836875       0.35624981       0.49176573
Na      26.60747925      25.55340842       7.51035852       0.70259299       0.48891849       0.03604800
Cl      13.71570951      14.45375950      23.68631558       0.95341145       0.06971489       0.11511368
Na      -3.64923461      16.86051460      18.58424487       0.89645387       0.36348723       0.50044726
Cl     -13.58739486      -1.83258513     -12.39232178       0.30651073       0.68714668       0.32972600
Na       5.30593166       7.17542256      15.02357052       0.95423780       0.52438837       0.85413764
Cl      10.74094780      16.28615546     -13.80101458       0.62283265       0.27461047       0.49857083
Na      -9.03382439       1.44452301       5.84065449       0.17835680       0.31470654       0.79955128
Cl       9.67305252     -18.67442100       1.10879960       0.28550425       0.38995002       0.96376672
Na      -3.04469501       6.69672549       5.66598246       0.03253803       0.71701772       0.54745501
Cl      -1.39879786      -5.13866917      -8.59213522       0.55672694       0.96604076       0.32779299
Na       9.37320903      11.55142321      -9.85726046       0.39639520       0.15918899       0.80800648
Cl      13.04046516      -3.30257618      -7.92872832       0.60965885       0.69962182       0.70193088
Na       6.92969640     -10.35242322      -1.53649305       0.67213913       0.73523899       0.32120500
Cl      -1.97877893      19.64725133       4.35263552       0.94552449       0.34454210       0.96360008
Na       1.00274492       4.13979911       4.87671950       0.69943182       0.10850099       0.57306557
Cl       7.79030400       8.14166700      13.57507710       0.86374666       0.20996273       0.44835326
Na       4.69498852      -5.75818241       3.24948303       0.35112184       0.30425534       0.27351653
Cl     -15.01921165     -15.15191062      19.66874267       0.84666875       0.62111258       0.27182722
Na      26.44967714      -0.49036040       9.76556963       0.14623255       0.77624687       0.07192593
Cl      11.11250155      32.78880808      15.19574911       0.68276947       0.15666362       0.14699456
Na       6.72082409      -9.55540441      -8.06446320       0.53188652       0.31525751       0.86135408
Cl      12.03463636      -7.56350745      -6.22253710       0.99749017       0.46653042       0.58785549
Na       1.53427116      -8.81548004      26.87141635       0.17119005       0.80181007       0.84177381
Cl      18.81639757       1.92027359      24.79944139       0.44530707       0.13997315       0.28846625
Na      10.77368308      -8.61284201      25.23124077       0.76013207       0.96728483       0.87768636
Cl      13.38910044     -10.37246154       8.09661322       0.96060565       0.87669645       0.58526247
Na       1.24381747     -11.82799731      17.26177548       0.86915944       0.23692909       0.30750934
Cl      27.09416640     -11.98567574      13.62969237       0.76604426       0.46402019       0.60006714
Na       1.49357431      -0.87125384      -5.92393924       0.73558334       0.55801929       0.96175361
Cl       1.36009230       4.48521628      -8.30950116       0.88287365       0.81739689       0.65266490
Na      10.70456826       5.49761891      -0.38948047       0.05681548       0.48389564       0.19924428
Cl       0.92436338       0.23228669       9.55391226       0.29975741       0.42276315       0.02029253
Na      15.00917188      -5.77555245       2.99332305       0.47132067       0.69025807       0.70901590
Cl      15.51387123     -12.69405281       7.43360192       0.67860318       0.97153818       0.74075283
Na       3.37376241      11.70598669      -7.63259157       0.40143824       0.27022665       0.77969634
Cl     -10.04882101     -10.27542438       0.48084947       0.70685301       0.57330431       0.93385091
Na      10.59722502      -5.04316625      10.38592459       0.09347921       0.66444316       0.96772599
Cl      -6.61520062       3.33920201      -8.11016200       0.52077657       0.05093330       0.64901195
Na       1.48163892       6.47398671      -2.60413365       0.35444439       0.47925892       0.35870748
Cl       6.15444456      16.06292809       0.23108130       0.42743211       0.53217669       0.62157532
Na      18.35692112      -7.29706855      11.29804178       0.97421520       0.46198730       0.56710763
Cl      22.41568621     -20.71644500      -1.96895255       0.21619150       0.85802895       0.69492409
Na      15.77072127       3.96954614       7.71145873       0.14973811       0.90403523       0.92811003
Cl       1.96014813       6.86589787       2.44322765       0.47880538       0.56776548       0.81426016
Na      19.67782062       6.54420843      11.37602662       0.24120705       0.74602333       0.30271763
Cl       5.88123034      -0.87606224       3.67441812       0.59310800       0.82772291       0.77132717
Na      11.94452142       1.79015519      12.89774857       0.08142305       0.25438048       0.70815724
Cl      30.75400799      14.71124703       6.73976468       0.27677891       0.57459808       0.20763359
Na      22.01213922      -0.08075373     -10.38124535       0.81446032       0.93510619       0.65603684
Cl      -2.08086311     -14.70791921       6.48486516       0.24051238       0.79591268       0.95140746
Na      10.18418379      22.76437312      11.26927374       0.30472821       0.23976521       0.31894672
Cl       5.80899471      14.29405581     -14.11135309       0.73479455       0.58494411       0.14440196
Na      10.35614558      15.70865194     -14.78586246       0.22107860       0.09412565       0.83254666
Cl      21.43754043      11.38496407      -4.15287914       0.43734813       0.50196474       0.20393868
Na      14.32781866      32.70692858       3.81866255       0.70268790       0.27503157       0.51158931
Cl      12.48220586       5.40639100      -6.49844369       0.99901353       0.68995530       0.76122903
Na      18.30335817      -0.56083826       2.71566237       0.04834059       0.19283710       0.37393351
Cl       3.22342553      12.78979826       5.33662105       0.00557337       0.94175100       0.15276044
Na      20.37539944       4.89983601      -2.69874935       0.38221052       0.85557473       0.13045308
Cl      -1.78763716       5.55706740       3.77300493       0.20488672       0.54247500       0.13275028
Na      15.56988617      -1.22165324      12.69605920       0.73310167       0.78594430       0.64128369
Cl      23.55637859      12.13434903      22.76795813       0.34431928       0.34828312       0.34641298
Na       0.26210801      -2.44654703     -11.78720249       0.35981525       0.77500110       0.58547287
Cl      24.96044311      16.54365656       5.44415329       0.07203915       0.50383165       0.76117053
Na      12.79968626      -3.25489047      30.45751980       0.89739458       0.03406620       0.18141012
Cl       9.29221182       9.09394795      13.25766624       0.58853123       0.16433367       0.50580461
Na      14.81009232      12.23884024      -3.90474455       0.35903147       0.92028382       0.95704968
Cl      12.71468357      28.82024496      17.45420046       0.39427538       0.52323886       0.03690305
Na      23.93186627       2.88784324      -1.89604820       0.54432330       0.30419726       0.81798972
Cl       8.74213080       8.55724912      18.94191518       0.61666537       0.23826341       0.65313249
Na      -8.92464630      25.29550319       8.41992101       0.85296319       0.48959456       0.55482268
Cl       5.73118930      -0.12104375      -6.54856672       0.87494498       0.71846234       0.02412666
Na      18.23170584       8.73317967      -2.89960900       0.73881041       0.86314032       0.90004794
Cl      -4.95078772       4.64215301      26.69021525       0.64466984       0.91181353       0.00216602
Na       7.40408649      -5.03142953       5.54256936       0.18975263       0.74011590       0.70155143
Cl       5.27276430     -16.96886643       7.45705133       0.62587448       0.00343677       0.68614254
